 cyclone simulation" 
 VARIABLES = "x","y","hmax","Etamax1","Etamax"
 ZONE N=       30043  E=       59803  DATAPACKING=POINT ZONETYPE=FETRIANGLE

    403659.6762   1434594.2820         0.0000        16.2734        16.0935
    403588.0276   1434563.4750         0.0000        16.1875        16.1501
    403528.9824   1434526.4780         0.0000        16.3828        16.0037
    403715.7213   1434550.4390         0.0000        16.3203        16.0935
    403733.5458   1434619.6500         0.0000        15.7422        15.7740
    403823.8913   1434766.2540         0.0000        15.1563        15.1661
    403875.7293   1434784.1410         0.0000        15.0625        15.0982
    403798.5431   1434715.0940         0.0000        15.2109        15.2399
    403779.7759   1434661.5400         0.0000        15.3047        15.4025
    403488.0614   1434458.3700         0.0000        15.0156        15.1543
    403586.2382   1434477.1190         0.0000        15.7344        15.5822
    403649.1103   1434517.9290         0.0000        16.0000        15.9432
    403707.1951   1434484.7640         0.0000        15.6875        15.7922
    403475.9154   1434369.8610         0.0000        13.8203        14.2662
    403399.0910   1434320.5750         0.0000        13.9531        14.4385
    403969.9453   1435053.7290         0.0000        15.1406        14.9882
    403898.0883   1434899.4020         0.0000        15.2969        15.2552
    403968.8970   1435110.8620         0.0000        14.6484        14.8336
    403845.4128   1434830.9740         0.0000        15.1484        15.1709
    403857.8343   1434889.6200         0.0000        15.3516        15.2812
    403790.4859   1434814.6530         0.0000        15.1641        15.2185
    403730.0484   1434698.5990         0.0000        15.3516        15.4628
    403748.0368   1434768.4260         0.0000        15.2813        15.3506
    403671.8809   1434665.9130         0.0000        15.6875        15.8062
    403597.9732   1434639.2140         0.0000        16.0938        16.1026
    403519.7621   1434608.6500         0.0000        16.2734        16.2274
    403459.3649   1434557.2330         0.0000        15.9375        15.9575
    403395.8827   1434414.2550         0.0000        14.9141        15.0090
    403311.8958   1434364.2320         0.0000        15.9688        15.5790
    403401.1986   1434501.6540         0.0000        15.5938        15.6557
    404015.7664   1435144.8960         0.0000        14.9531        14.8980
    404015.1405   1435090.4860         0.0000        14.2734        14.6553
    404018.2687   1435037.2750         0.0000        15.0859        14.8637
    403929.1570   1434996.8690         0.0000        15.2266        15.2024
    403980.0339   1435004.5660         0.0000        15.0625        15.0879
    403930.3383   1434935.1060         0.0000        15.2500        15.2292
    403940.0866   1434876.9630         0.0000        15.1875        15.1695
    403913.1952   1434831.7020         0.0000        15.0781        15.1182
    403767.9870   1434504.1780         0.0000        16.2578        16.0026
    403784.6146   1434566.4830         0.0000        15.9219        15.9715
    403915.9053   1434768.9640         0.0000        15.0391        15.0646
    403814.8452   1434615.7590         0.0000        15.6563        15.6051
    403874.5274   1434721.3940         0.0000        15.1641        15.1461
    403841.2803   1434669.0290         0.0000        15.2656        15.2982
    403565.1182   1434405.2780         0.0000        14.2813        14.6460
    403658.7490   1434433.6290         0.0000        15.2578        15.3305
    403749.2200   1434438.4960         0.0000        15.4531        15.5607
    403552.4034   1434323.2930         0.0000        14.0313        14.0787
    403482.2262   1434273.2950         0.0000        14.6875        14.1898
    404065.6411   1435216.4310         0.0000        14.5859        15.0841
    404073.9904   1435267.8340         0.0000        16.2969        15.5010
    404018.7333   1435200.0820         0.0000        14.9609        15.0833
    403970.3216   1435169.3930         0.0000        14.9531        14.9928
    403921.8123   1435062.5660         0.0000        15.1719        15.1398
    403873.4471   1434960.9480         0.0000        15.2891        15.3029
    403879.4263   1435024.0580         0.0000        15.2734        15.2752
    403919.5299   1435123.0010         0.0000        15.1250        15.0867
    403797.0354   1434880.3340         0.0000        15.2813        15.2822
    403815.7420   1434945.7150         0.0000        15.3828        15.3491
    403742.0072   1434850.4560         0.0000        15.3672        15.3478
    403677.3880   1434744.3320         0.0000        15.8672        15.7165
    403689.1490   1434816.1080         0.0000        15.5859        15.6161
    403612.3475   1434712.1410         0.0000        15.8984        16.0223
    403532.9334   1434684.3780         0.0000        16.3359        16.2585
    403448.4478   1434651.6300         0.0000        16.2891        16.2277
    403383.8615   1434600.9000         0.0000        16.1875        16.1586
    403310.1429   1434456.3170         0.0000        15.9531        15.9782
    403220.1735   1434404.4830         0.0000        16.5156        16.3709
    403319.0530   1434544.7080         0.0000        16.2266        16.2634
    404121.3341   1435288.5530         0.0000        14.9297        15.0343
    404136.1893   1435335.4680         0.0000        15.1094        14.9853
    404111.1828   1435240.5820         0.0000        15.1250        14.9247
    404060.6596   1435164.9570         0.0000        15.5859        15.0010
    404104.5927   1435192.3180         0.0000        14.6094        14.6421
    404058.5777   1435113.5940         0.0000        14.7266        14.6846
    404059.3102   1435062.7960         0.0000        14.5547        14.5178
    404061.9575   1435012.0010         0.0000        14.6094        14.6101
    404022.3628   1434983.1400         0.0000        14.8984        14.9302
    403977.0945   1434953.6920         0.0000        15.1406        15.1242
    403980.7274   1434899.0710         0.0000        15.1641        15.1394
    403980.0685   1434837.8460         0.0000        15.0234        15.0498
    403963.3718   1434785.0010         0.0000        15.0391        15.0336
    403813.9582   1434459.4220         0.0000        15.7266        15.7558
    403830.0519   1434520.9090         0.0000        16.1328        15.9663
    403855.9489   1434571.5540         0.0000        15.8984        15.7818
    403942.5121   1434731.3780         0.0000        15.0469        15.0560
    403883.5899   1434623.6850         0.0000        15.3281        15.3916
    403932.1322   1434688.1640         0.0000        15.0859        15.0793
    403900.2153   1434667.4100         0.0000        15.2188        15.1811
    403634.6966   1434361.2210         0.0000        15.0469        14.6560
    403720.0145   1434382.2510         0.0000        15.3125        15.2716
    403798.6349   1434395.8370         0.0000        15.4219        15.4681
    403855.1813   1434415.0870         0.0000        15.6172        15.6081
    403626.0416   1434278.8600         0.0000        12.7500        13.9548
    403563.7447   1434226.8980         0.0000        13.9766        13.8330
    404086.8047   1435318.6770         0.0000        15.1016        15.3092
    404104.9197   1435367.7440         0.0000        15.1875        15.2055
    404025.8783   1435254.4330         0.0000        15.5156        15.3945
    404038.1579   1435308.8110         0.0000        15.3828        15.5218
    403972.4370   1435233.9150         0.0000        15.2813        15.2176
    403921.8602   1435183.7880         0.0000        15.1016        15.1737
    403920.5760   1435240.2430         0.0000        15.4141        15.2380
    403867.5388   1435082.4760         0.0000        15.2891        15.2748
    403825.6255   1435023.9600         0.0000        15.3906        15.3623
    403867.4184   1435146.0300         0.0000        15.2656        15.2565
    403749.9354   1434926.4050         0.0000        15.2656        15.3452
    403767.8474   1434992.2860         0.0000        15.4219        15.3971
    403691.1482   1434897.7800         0.0000        15.4375        15.4840
    403619.1651   1434790.2700         0.0000        16.0391        16.0396
    403632.4666   1434863.6170         0.0000        15.8359        15.8372
    403549.0819   1434757.8670         0.0000        16.5469        16.2894
    403463.9252   1434728.7570         0.0000        16.2031        16.2164
    403373.7417   1434695.5160         0.0000        16.2344        16.2440
    403304.3740   1434644.0130         0.0000        16.5391        16.4815
    403220.8027   1434498.0060         0.0000        16.7109        16.5704
    403126.2946   1434445.6800         0.0000        16.4297        16.5638
    403235.1395   1434585.8280         0.0000        16.8672        16.7847
    404156.4191   1435380.3990         0.0000        15.0078        14.9559
    404154.3402   1435260.4060         0.0000        14.2734        14.3709
    404166.1868   1435304.6310         0.0000        14.6953        14.5409
    404182.8271   1435347.4080         0.0000        14.6250        14.6013
    404146.3621   1435215.5820         0.0000        14.2500        14.2740
    404100.6091   1435144.1900         0.0000        14.4297        14.4999
    404141.0651   1435170.7370         0.0000        14.0547        14.0888
    404099.0633   1435096.3580         0.0000        14.2813        14.2999
    404100.0286   1435048.9500         0.0000        14.0469        14.2127
    404102.4024   1435002.0810         0.0000        14.3750        14.2627
    404068.5896   1434958.6500         0.0000        14.6953        14.6786
    404024.5197   1434931.9870         0.0000        15.0938        15.0212
    404024.4994   1434880.4320         0.0000        15.0781        15.0345
    404028.4936   1434835.1420         0.0000        14.9609        14.9571
    404014.3411   1434786.6270         0.0000        14.9531        14.9429
    403992.6070   1434737.0380         0.0000        15.0547        14.9834
    403915.5394   1434582.5010         0.0000        15.5469        15.4610
    403870.2995   1434476.3910         0.0000        15.7266        15.7188
    403891.2352   1434527.0340         0.0000        15.7734        15.7200
    403934.8490   1434540.0440         0.0000        15.4375        15.4111
    403903.7335   1434433.5860         0.0000        15.5469        15.4875
    403933.6991   1434397.7810         0.0000        15.1953        15.1968
    403977.3476   1434686.4560         0.0000        14.9844        14.9705
    403951.8682   1434635.0260         0.0000        14.9844        15.0591
    403948.5481   1434358.0900         0.0000        14.8984        14.8937
    403698.9469   1434317.4270         0.0000        15.0781        14.8352
    403775.2406   1434339.3900         0.0000        15.2266        15.2544
    403893.4675   1434370.5680         0.0000        15.6328        15.4017
    403842.2774   1434352.2390         0.0000        15.5703        15.4357
    403922.8991   1434327.7910         0.0000        15.0547        14.9882
    403695.7274   1434235.5590         0.0000        14.7813        14.4539
    403643.6932   1434181.3950         0.0000        14.4453        14.0616
    404128.5556   1435414.5560         0.0000        15.2578        15.2479
    404054.9455   1435361.9070         0.0000        15.5469        15.4378
    404078.0013   1435411.6680         0.0000        15.2656        15.4382
    403987.3092   1435297.5210         0.0000        15.4531        15.3525
    404002.9573   1435355.1370         0.0000        15.6563        15.5181
    403936.0110   1435294.6200         0.0000        14.8750        15.2085
    403868.9617   1435209.5300         0.0000        15.2578        15.2794
    403877.1841   1435274.4810         0.0000        15.2422        15.3185
    403812.6383   1435102.4360         0.0000        15.3750        15.3645
    403774.3610   1435058.6910         0.0000        15.4063        15.4110
    403808.4993   1435166.5510         0.0000        15.3750        15.3580
    403698.7866   1434974.5350         0.0000        15.4141        15.4305
    403717.2588   1435041.4040         0.0000        15.4531        15.4405
    403635.9855   1434945.3590         0.0000        15.5859        15.6267
    403557.5657   1434836.6510         0.0000        16.5156        16.1884
    403572.5163   1434910.8480         0.0000        15.9219        15.9273
    403482.3383   1434803.4750         0.0000        15.9766        16.0915
    403391.6521   1434773.4670         0.0000        15.9766        16.0257
    403296.3329   1434739.7680         0.0000        16.3047        16.3153
    403031.1319   1434489.9520         0.0000        15.8906        16.6592
    403223.1222   1434688.6930         0.0000        16.8828        16.7920
    403125.8059   1434550.6240         0.0000        16.9844        16.8747
    403162.4467   1434635.5570         0.0000        17.2344        17.0969
    402936.3109   1434535.7580         0.0000        17.1953        17.0291
    404175.8370   1435500.3740         0.0000        14.0703        14.4833
    404154.5130   1435458.1320         0.0000        15.4219        15.0419
    404182.2166   1435422.6290         0.0000        14.8047        14.7261
    404204.7546   1435387.6810         0.0000        14.6094        14.4556
    404183.2497   1435221.2810         0.0000        13.8047        13.8315
    404191.4105   1435262.6400         0.0000        13.7188        13.8759
    404203.3393   1435303.3140         0.0000        14.0859        14.0242
    404219.8258   1435342.4810         0.0000        14.0547        13.9857
    404177.7523   1435179.8260         0.0000        13.8594        13.8036
    404211.1194   1435183.1340         0.0000        13.5234        13.5169
    404137.6876   1435126.0800         0.0000        13.9766        14.0051
    404173.7730   1435138.5610         0.0000        13.5078        13.6874
    404136.5344   1435081.6750         0.0000        14.1328        13.9439
    404137.9431   1435037.8530         0.0000        13.8672        13.8148
    404140.9015   1434995.6710         0.0000        13.7891        13.8663
    404112.6165   1434958.0050         0.0000        14.2578        14.2661
    404148.0616   1434957.2250         0.0000        13.9453        14.0073
    404105.4443   1434914.1030         0.0000        14.5000        14.5451
    404066.6900   1434906.0920         0.0000        14.9531        14.8656
    404067.9171   1434858.0130         0.0000        14.8828        14.8830
    404063.0165   1434811.1490         0.0000        14.8359        14.8397
    404056.6256   1434770.2010         0.0000        14.8125        14.7971
    404035.0832   1434733.3210         0.0000        14.8438        14.8191
    404019.1272   1434688.9660         0.0000        14.8281        14.8007
    403961.3230   1434580.3610         0.0000        15.1641        15.1132
    403930.6479   1434485.9140         0.0000        15.4766        15.3969
    403963.8793   1434529.4800         0.0000        15.0859        15.1223
    403958.0746   1434442.8300         0.0000        15.0938        15.0747
    403979.3049   1434400.2700         0.0000        14.7891        14.7288
    404004.9802   1434642.6700         0.0000        14.8047        14.7701
    403997.8874   1434597.2750         0.0000        14.7422        14.7931
    404012.1404   1434382.6690         0.0000        14.3906        14.3727
    403990.1997   1434353.9760         0.0000        14.3672        14.4841
    403969.3851   1434316.3450         0.0000        14.3984        14.5269
    403758.2257   1434276.6780         0.0000        15.0156        14.9539
    403821.9428   1434295.7440         0.0000        15.1797        15.0780
    403880.9480   1434307.1860         0.0000        15.1250        15.0468
    403935.6980   1434288.8000         0.0000        14.7031        14.6004
    403755.9117   1434206.8420         0.0000        14.5625        14.5488
    403722.1017   1434136.7680         0.0000        13.8984        14.3062
    404355.6283   1435711.4750         0.0000        13.2813        13.3564
    404234.4175   1435589.3020         0.0000        15.3438        14.9135
    404201.6387   1435550.1880         0.0000        15.4844        14.7909
    404159.1779   1435549.9590         0.0000        15.0156        15.0605
    404126.2287   1435507.1730         0.0000        15.4922        15.1749
    404103.4873   1435461.0970         0.0000        15.7891        15.5488
    404023.7676   1435409.7840         0.0000        15.7109        15.5796
    404053.1301   1435454.7640         0.0000        15.6641        15.5766
    403950.5941   1435354.2660         0.0000        15.1094        15.3312
    403971.5934   1435412.6910         0.0000        15.5156        15.4564
    403891.5510   1435337.7600         0.0000        15.7656        15.4779
    403814.5728   1435239.3630         0.0000        15.3594        15.3701
    403828.5505   1435311.6410         0.0000        15.4688        15.5155
    403740.3389   1435116.9460         0.0000        15.4297        15.4209
    403748.8042   1435187.2690         0.0000        15.4141        15.4145
    403759.9250   1435241.2740         0.0000        15.4219        15.4280
    403644.1862   1435023.0820         0.0000        15.4609        15.5374
    403667.1131   1435090.7760         0.0000        15.4766        15.4838
    403577.1791   1434993.3660         0.0000        15.8281        15.7595
    403492.4274   1434883.1770         0.0000        15.8359        15.9329
    403509.3201   1434958.3090         0.0000        15.9922        15.8591
    403412.2569   1434849.2680         0.0000        15.7656        15.7940
    403316.4539   1434818.6250         0.0000        15.8438        15.9332
    403215.8913   1434784.9580         0.0000        16.4453        16.4449
    403024.0119   1434593.9650         0.0000        17.3203        17.1097
    403137.5423   1434734.2670         0.0000        17.0625        16.9803
    403079.7742   1434665.0650         0.0000        17.3672        17.2365
    402930.8913   1434642.2000         0.0000        17.3047        17.1599
    402840.6494   1434584.4280         0.0000        16.5391        16.9198
    404240.1371   1435544.7060         0.0000        13.4453        13.9580
    404217.4343   1435508.0640         0.0000        13.1328        13.7256
    404212.3356   1435464.2650         0.0000        13.6563        13.9325
    404231.3085   1435425.0950         0.0000        14.1953        13.9860
    404241.4115   1435379.1680         0.0000        13.6719        13.7719
    404216.2916   1435221.1350         0.0000        13.4844        13.4530
    404224.1257   1435258.9800         0.0000        13.4375        13.4044
    404235.4404   1435296.2690         0.0000        13.4375        13.4203
    404250.8495   1435332.1360         0.0000        13.3125        13.3511
    404241.6145   1435185.5440         0.0000        13.1797        13.1653
    404371.0739   1435748.1600         0.0000        12.9844        12.9453
    404344.4749   1435673.7780         0.0000        13.2031        13.3264
    404379.9143   1435689.3060         0.0000        13.2266        13.3341
    404391.8805   1435722.8040         0.0000        13.1094        12.9904
    404336.8771   1435635.9200         0.0000        13.2578        13.5495
    404304.4771   1435614.1340         0.0000        15.2109        14.2573
    404271.1672   1435603.7890         0.0000        14.8047        14.4917
    404271.9585   1435557.2130         0.0000        13.5313        13.8631
    404207.0353   1435145.3050         0.0000        13.5547        13.5148
    404237.7508   1435151.2320         0.0000        13.2422        13.2564
    404171.3864   1435097.4510         0.0000        13.7578        13.6843
    404203.8918   1435107.6170         0.0000        13.4844        13.5140
    404171.5482   1435056.6050         0.0000        13.1719        13.4919
    404174.0706   1435016.3610         0.0000        13.2813        13.4418
    404177.3221   1434977.0120         0.0000        13.7266        13.7419
    404142.7873   1434919.4050         0.0000        14.2578        14.2858
    404177.8647   1434936.8480         0.0000        14.1406        14.0716
    404142.1647   1434878.3860         0.0000        14.5313        14.5068
    404106.2144   1434868.9490         0.0000        14.7188        14.7193
    404048.7541   1434659.0280         0.0000        14.4922        14.5409
    404104.9157   1434824.4750         0.0000        14.7656        14.7277
    404098.0460   1434782.4310         0.0000        14.6875        14.6387
    404081.2557   1434741.1900         0.0000        14.6250        14.5988
    404063.1098   1434701.1560         0.0000        14.5781        14.5815
    403996.9176   1434548.0250         0.0000        14.7813        14.8165
    403990.1860   1434493.1940         0.0000        14.8750        14.8306
    404006.1872   1434449.2450         0.0000        14.5547        14.5824
    404024.7752   1434415.9550         0.0000        14.3984        14.3436
    404038.8188   1434616.2060         0.0000        14.5313        14.5432
    404032.8452   1434572.9000         0.0000        14.6719        14.5604
    404046.4223   1434387.9590         0.0000        14.0234        14.0408
    404029.4008   1434356.7580         0.0000        14.2266        14.1546
    404012.8818   1434322.9950         0.0000        14.5781        14.2623
    403999.2070   1434291.2680         0.0000        14.3281        14.2511
    403977.7209   1434271.6870         0.0000        14.2578        14.2400
    403807.6652   1434232.6270         0.0000        14.6563        14.6653
    403951.4296   1434247.8310         0.0000        14.1406        14.2325
    403857.6227   1434251.5400         0.0000        14.5469        14.6180
    403905.9485   1434256.9830         0.0000        14.3828        14.4663
    403799.0000   1434093.0000         0.0000        14.2734        14.2272
    403798.6427   1434160.8810         0.0000        14.3672        14.3166
    404393.2621   1435781.9330         0.0000        12.2344        12.5041
    404542.7626   1435857.6090         0.0000        11.7500        13.4728
    404504.5427   1435842.1780         0.0000        18.2891        16.3232
    404423.4363   1435810.0980         0.0000        12.5547        12.5360
    404462.0401   1435835.4010         0.0000        13.4297        14.2080
    404307.4185   1435657.1180         0.0000        13.2891        13.7564
    404316.7680   1435699.1970         0.0000        14.2422        14.0081
    404330.9802   1435740.5420         0.0000        13.6250        13.8670
    404351.2277   1435779.9150         0.0000        13.2656        13.4432
    404270.9658   1435650.2330         0.0000        13.1797        14.2344
    404231.7328   1435636.8380         0.0000        14.9766        14.9478
    404189.9448   1435604.2520         0.0000        15.8125        15.4179
    404145.2254   1435597.1330         0.0000        15.4219        15.2738
    404109.2572   1435558.6450         0.0000        14.3438        15.0424
    404068.0476   1435507.9810         0.0000        15.4688        15.2705
    404001.1194   1435472.5990         0.0000        15.4375        15.3567
    403910.8304   1435400.1290         0.0000        15.3359        15.4574
    403935.9796   1435460.3870         0.0000        15.2891        15.4245
    403845.9383   1435378.2830         0.0000        15.9688        15.6187
    403763.2221   1435302.7360         0.0000        15.4766        15.4716
    403785.1165   1435372.4060         0.0000        15.4609        15.4959
    403681.3825   1435164.9630         0.0000        15.4141        15.4764
    403699.3010   1435243.6670         0.0000        15.4844        15.5120
    403586.9961   1435072.2540         0.0000        15.6875        15.6239
    403610.2367   1435140.5600         0.0000        15.4922        15.5541
    403515.3215   1435042.0320         0.0000        15.7188        15.6665
    403424.1018   1434930.1550         0.0000        15.7109        15.6642
    403443.1412   1435006.3990         0.0000        15.7188        15.5579
    403339.3287   1434895.7230         0.0000        15.4844        15.5743
    403238.8941   1434864.9040         0.0000        15.9375        15.9653
    403133.8531   1434832.0010         0.0000        16.6094        16.5735
    402991.9532   1434712.6080         0.0000        17.3125        17.2258
    403052.0906   1434780.0570         0.0000        17.0781        17.0209
    402902.7002   1434762.9600         0.0000        17.0625        17.0407
    402837.9826   1434693.0070         0.0000        17.0547        16.9233
    402744.4650   1434636.6850         0.0000        16.7422        16.7640
    404854.1758   1436143.2330         0.0000        13.0781        12.4160
    404258.7454   1435502.1650         0.0000        13.5234        13.4264
    404262.8865   1435458.4470         0.0000        13.3906        13.4297
    404267.5245   1435412.4440         0.0000        13.3359        13.4419
    404271.2989   1435365.6210         0.0000        13.4297        13.2873
    404246.2728   1435220.0840         0.0000        13.0000        13.0341
    404253.6594   1435254.7250         0.0000        12.7109        12.8582
    404264.3287   1435288.3770         0.0000        12.8906        12.8354
    404278.2278   1435320.9860         0.0000        12.7266        12.8230
    404268.0182   1435158.8760         0.0000        12.8438        13.5437
    404268.4623   1435193.4530         0.0000        12.8906        13.2319
    404746.6138   1436046.7020         0.0000        12.5078        13.6394
    404408.3902   1435754.3130         0.0000        12.0156        12.3824
    404432.4577   1435780.8630         0.0000        12.0859        12.3230
    404462.9761   1435800.6840         0.0000        12.0234        12.7011
    404497.1338   1435812.4410         0.0000        14.5781        14.8081
    404583.0032   1435859.1710         0.0000        10.8750        11.1337
    404612.9596   1435881.6690         0.0000        10.8516        11.2446
    404534.8518   1435820.6020         0.0000        18.5391        16.1461
    404571.2048   1435826.1200         0.0000        11.8906        13.1018
    404371.4552   1435653.3750         0.0000        13.0391        13.3961
    404415.0208   1435705.2880         0.0000        13.4375        12.4403
    404405.6725   1435675.9260         0.0000        14.1953        12.7649
    404426.2930   1435734.0260         0.0000        12.5625        11.9879
    404360.8478   1435619.7760         0.0000        13.1563        13.5708
    404335.7943   1435596.8940         0.0000        14.3516        13.9828
    404307.8976   1435567.6880         0.0000        13.6484        13.8550
    404294.2097   1435523.3970         0.0000        13.4844        13.4339
    404798.0402   1436069.8140         0.0000        12.5547        12.4722
    404845.6897   1436089.3120         0.0000        12.6563        12.6173
    404791.4164   1436017.1850         0.0000        11.9766        12.5192
    404234.1083   1435116.9590         0.0000        13.4141        13.2971
    404261.9522   1435125.3020         0.0000        13.1016        13.5294
    404202.8623   1435070.0300         0.0000        13.6250        13.4529
    404231.9392   1435082.7030         0.0000        13.3125        13.2653
    404204.5590   1435032.8030         0.0000        13.2578        13.2486
    404207.5510   1434996.1780         0.0000        13.3594        13.3679
    404208.8446   1434959.8310         0.0000        13.9844        13.7885
    404176.2081   1434898.2220         0.0000        14.3750        14.2646
    404208.4066   1434923.6420         0.0000        13.9141        13.9561
    404078.8896   1434637.9620         0.0000        14.2891        14.2750
    404175.1944   1434859.1920         0.0000        14.3594        14.3235
    404141.8460   1434836.2890         0.0000        14.7266        14.5794
    404090.8087   1434676.9960         0.0000        14.3828        14.3358
    404140.0013   1434792.6000         0.0000        14.4141        14.4083
    404124.0298   1434752.1120         0.0000        14.2734        14.3271
    404106.6103   1434714.7760         0.0000        14.3438        14.3392
    404030.7747   1434528.9180         0.0000        14.4766        14.4914
    404034.9784   1434488.7050         0.0000        14.3125        14.3566
    404046.2338   1434451.3380         0.0000        14.1875        14.1929
    404061.4769   1434418.9190         0.0000        14.0000        13.9858
    404070.4328   1434598.2930         0.0000        14.3047        14.2851
    404065.2032   1434558.5500         0.0000        14.2109        14.2661
    404105.5059   1434613.2100         0.0000        13.9063        13.9988
    404078.7767   1434391.8230         0.0000        13.7109        13.6884
    404064.0945   1434364.1970         0.0000        13.6406        13.6968
    404049.4580   1434336.7680         0.0000        13.7500        13.7939
    404040.8022   1434310.4670         0.0000        13.7969        13.8131
    404025.5738   1434286.5550         0.0000        13.8984        13.9231
    404010.5533   1434256.1750         0.0000        13.9375        13.8903
    403988.7681   1434229.5770         0.0000        13.9297        13.9188
    403959.5405   1434213.4930         0.0000        14.1641        14.0374
    403977.4858   1434195.2310         0.0000        13.8359        13.7905